8
energy=-1295.82750222 kpoints_mp_grid="4       3       3" castep_file_name=surface.castep Lattice="6.66261200       0.00000000       0.00000000       0.00000000       9.42235600       0.00000000       0.00000000       0.00000000       7.69332200" Properties=species:S:1:pos:R:3:Z:I:1:frac_pos:R:3:force:R:3
Si              0.00000000     -3.53338350      0.00000000      14      0.00000000     -0.37500000      0.00000000      0.00033000     -1.16075000      0.00000000
Si             -3.33130600     -3.53338350      1.92333050      14     -0.50000000     -0.37500000      0.25000000     -0.00102000     -1.16196000      0.00000000
Si              1.11043755     -4.31857669      1.92333050      14      0.16666700     -0.45833300      0.25000000      0.00097000      1.16426000      0.00000000
Si             -2.22086845     -4.31857669      0.00000000      14     -0.33333300     -0.45833300      0.00000000     -0.00028000      1.15845000      0.00000000
Si              0.00000000     -3.53338350      3.84666100      14      0.00000000     -0.37500000      0.50000000      0.00033000     -1.16075000      0.00000000
Si             -3.33130600     -3.53338350      5.76999150      14     -0.50000000     -0.37500000      0.75000000     -0.00102000     -1.16196000      0.00000000
Si              1.11043755     -4.31857669      5.76999150      14      0.16666700     -0.45833300      0.75000000      0.00097000      1.16426000      0.00000000
Si             -2.22086845     -4.31857669      3.84666100      14     -0.33333300     -0.45833300      0.50000000     -0.00029000      1.15845000      0.00000000
8
energy=-1295.94553644 kpoints_mp_grid="4       3       3" castep_file_name=surface.castep Lattice="6.66261200       0.00000000       0.00000000       0.00000000       9.42235600       0.00000000       0.00000000       0.00000000       7.69332200" Properties=species:S:1:pos:R:3:Z:I:1:frac_pos:R:3:force:R:3
Si             -0.11288464     -3.87304059     -0.04229788      14     -0.01694300     -0.41104800     -0.00549800      1.34267000      0.09743000      0.50243000
Si             -3.26370048     -3.33052960      1.91749896      14     -0.48985300     -0.35347100      0.24924200     -1.18336000     -0.31681000      0.49881000
Si              1.13318371     -4.02825506      1.89445746      14      0.17008100     -0.42752100      0.24624700      0.47630000      0.39880000     -0.20825000
Si             -2.28243764     -4.02766145      0.05920011      14     -0.34257400     -0.42745800      0.00769500     -0.47347000     -0.26068000     -0.58804000
Si              0.05412706     -4.08861467      3.88764333      14      0.00812400     -0.43392700      0.50532700     -0.40427000      0.06936000     -1.19853000
Si             -3.37420656     -4.20122125      5.77032231      14     -0.50643900     -0.44587800      0.75004300      1.26016000      0.16028000     -0.26099000
Si              1.12685423     -3.95976395      5.76540628      14      0.16913100     -0.42025200      0.74940400     -0.43995000      0.04911000      0.86204000
Si             -2.16442946     -3.89876362      3.82773543      14     -0.32486200     -0.41377800      0.49754000     -0.57808000     -0.19749000      0.39252000
8
energy=-1296.09750200 kpoints_mp_grid="4       3       3" castep_file_name=surface.castep Lattice="6.66261200       0.00000000       0.00000000       0.00000000       9.42235600       0.00000000       0.00000000       0.00000000       7.69332200" Properties=species:S:1:pos:R:3:Z:I:1:frac_pos:R:3:force:R:3
Si              0.05185511     -3.31378607     -0.16048270      14      0.00778300     -0.35169400     -0.02086000     -0.42779000     -0.41596000      0.70305000
Si             -3.38927072     -3.78755155      2.02955220      14     -0.50870000     -0.40197500      0.26380700      0.28565000     -0.10705000     -0.17856000
Si              1.01114465     -4.14974692      1.78733565      14      0.15176400     -0.44041500      0.23232300      0.62198000      0.10083000     -0.38403000
Si             -2.14488802     -3.99554064      0.08508814      14     -0.32192900     -0.42404900      0.01106000     -0.35742000      0.21849000     -0.14918000
Si              0.02974856     -4.14127622      3.80259365      14      0.00446500     -0.43951600      0.49427200     -0.51535000      0.38715000     -0.17735000
Si             -3.37971654     -3.61919290      5.85194846      14     -0.50726600     -0.38410700      0.76065300      1.56470000     -0.06401000     -0.03033000
Si              1.17164697     -4.13714923      5.72235445      14      0.17585400     -0.43907800      0.74380800     -0.84855000     -0.30668000      0.32889000
Si             -2.23400045     -4.26360667      3.96156846      14     -0.33530400     -0.45249900      0.51493600     -0.32320000      0.18723000     -0.11250000
8
energy=-1296.22442907 kpoints_mp_grid="4       3       3" castep_file_name=surface.castep Lattice="6.66261200       0.00000000       0.00000000       0.00000000       9.42235600       0.00000000       0.00000000       0.00000000       7.69332200" Properties=species:S:1:pos:R:3:Z:I:1:frac_pos:R:3:force:R:3
Si             -0.01102662     -3.84769445     -0.00214644      14     -0.00165500     -0.40835800     -0.00027900      0.48897000      0.04774000     -0.47054000
Si             -3.33446408     -3.63391062      1.94267151      14     -0.50047400     -0.38566900      0.25251400     -0.45208000      0.15539000     -0.19298000
Si              1.12532849     -4.18024708      1.92820037      14      0.16890200     -0.44365200      0.25063300     -0.59871000      0.30920000      0.61196000
Si             -2.25908519     -4.16456828      0.05224535      14     -0.33906900     -0.44198800      0.00679100      0.45640000     -0.18556000     -0.20925000
Si             -0.09480231     -3.55694881      3.85762398      14     -0.01422900     -0.37750100      0.50142500      1.16172000     -0.41564000     -0.38687000
Si             -3.28133641     -3.74606492      5.78617825      14     -0.49250000     -0.39757200      0.75210400      0.64627000      0.24560000     -0.32082000
Si              1.22232280     -4.06138406      5.71311477      14      0.18346000     -0.43103700      0.74260700     -1.93651000     -0.08086000      0.28012000
Si             -2.25041047     -4.21705081      3.80207051      14     -0.33776700     -0.44755800      0.49420400      0.23394000     -0.07587000      0.68837000
8
energy=-1296.16583061 kpoints_mp_grid="4       3       3" castep_file_name=surface.castep Lattice="6.66261200       0.00000000       0.00000000       0.00000000       9.42235600       0.00000000       0.00000000       0.00000000       7.69332200" Properties=species:S:1:pos:R:3:Z:I:1:frac_pos:R:3:force:R:3
Si              0.06656616     -3.69452463      0.00630083      14      0.00999100     -0.39210200      0.00081900     -0.67628000      0.31984000      0.66025000
Si             -3.36153427     -3.43716240      1.94107899      14     -0.50453700     -0.36478800      0.25230700      0.13325000     -0.00548000     -0.55545000
Si              1.16087353     -4.12766092      1.92338435      14      0.17423700     -0.43807100      0.25000700     -0.45752000      0.08187000      0.73420000
Si             -2.17541611     -4.05379907      0.08298017      14     -0.32651100     -0.43023200      0.01078600     -0.44837000     -0.00437000     -0.78983000
Si             -0.05683208     -3.70797033      3.88822802      14     -0.00853000     -0.39352900      0.50540300      0.53279000     -0.15042000     -0.45090000
Si             -3.28408807     -3.86665223      5.70880651      14     -0.49291300     -0.41037000      0.74204700     -0.70046000     -0.12056000      0.69584000
Si              1.01622822     -4.29229774      5.82152137      14      0.15252700     -0.45554400      0.75669800      1.47148000     -0.00638000     -1.09121000
Si             -2.24928449     -4.22778287      3.70765806      14     -0.33759800     -0.44869700      0.48193200      0.14511000     -0.11451000      0.79711000
8
energy=-1296.19883680 kpoints_mp_grid="4       3       3" castep_file_name=surface.castep Lattice="6.66261200       0.00000000       0.00000000       0.00000000       9.42235600       0.00000000       0.00000000       0.00000000       7.69332200" Properties=species:S:1:pos:R:3:Z:I:1:frac_pos:R:3:force:R:3
Si              0.06362128     -3.73171467      0.04095925      14      0.00954900     -0.39604900      0.00532400     -0.38687000      0.19058000     -0.64177000
Si             -3.27943090     -3.68461231      1.86924645      14     -0.49221400     -0.39105000      0.24297000     -0.55405000     -0.16252000     -0.12928000
Si              1.11440181     -4.15807628      1.93333182      14      0.16726200     -0.44129900      0.25130000      0.83875000     -0.08635000      0.35310000
Si             -2.11184146     -4.30130551     -0.02400316      14     -0.31696900     -0.45650000     -0.00312000     -0.37215000      0.04552000      0.66080000
Si             -0.05275456     -3.58689306      3.77535160      14     -0.00791800     -0.38067900      0.49073100     -0.47888000     -0.23878000      0.77005000
Si             -3.30580818     -3.78351878      5.84521680      14     -0.49617300     -0.40154700      0.75977800     -1.15944000      0.25969000      0.27228000
Si              1.05249282     -4.09482400      5.74798091      14      0.15797000     -0.43458600      0.74713900      0.56388000      0.05181000     -0.38365000
Si             -2.36416790     -4.06692441      3.89189773      14     -0.35484100     -0.43162500      0.50588000      1.54877000     -0.05995000     -0.90154000
8
energy=-1296.21893671 kpoints_mp_grid="4       3       3" castep_file_name=surface.castep Lattice="6.66261200       0.00000000       0.00000000       0.00000000       9.42235600       0.00000000       0.00000000       0.00000000       7.69332200" Properties=species:S:1:pos:R:3:Z:I:1:frac_pos:R:3:force:R:3
Si              0.03584485     -3.69692733     -0.03778960      14      0.00538000     -0.39235700     -0.00491200     -0.13504000      0.07514000     -0.47125000
Si             -3.24477866     -3.71019401      2.08267459      14     -0.48701300     -0.39376500      0.27071200     -0.67329000      0.31594000     -1.57884000
Si              1.14389053     -3.97466070      1.88611790      14      0.17168800     -0.42183300      0.24516300      0.12901000     -0.14635000      0.56104000
Si             -2.21379275     -3.99775489      0.00323120      14     -0.33227100     -0.42428400      0.00042000      0.05009000     -0.15641000      1.03257000
Si             -0.11261147     -3.72634393      3.79185377      14     -0.01690200     -0.39547900      0.49287600      0.13246000     -0.25330000     -0.08380000
Si             -3.30556167     -3.70275035      5.77650005      14     -0.49613600     -0.39297500      0.75084600     -0.45164000      0.04954000     -0.46153000
Si              1.10810564     -4.09104564      5.68321852      14      0.16631700     -0.43418500      0.73872100      0.01716000      0.03977000      0.27593000
Si             -2.29457692     -4.50818276      3.89415957      14     -0.34439600     -0.47845600      0.50617400      0.93124000      0.07567000      0.72588000
8
energy=-1296.24269985 kpoints_mp_grid="4       3       3" castep_file_name=surface.castep Lattice="6.66261200       0.00000000       0.00000000       0.00000000       9.42235600       0.00000000       0.00000000       0.00000000       7.69332200" Properties=species:S:1:pos:R:3:Z:I:1:frac_pos:R:3:force:R:3
Si             -0.00101938     -3.65777744      0.01826395      14     -0.00015300     -0.38820200      0.00237400      0.47835000     -0.03514000     -0.02571000
Si             -3.41162379     -3.85684356      1.88417918      14     -0.51205500     -0.40932900      0.24491100      0.45981000      0.25856000      0.97005000
Si              1.07055516     -4.29805480      1.91767591      14      0.16068100     -0.45615500      0.24926500     -0.49330000      0.08112000      0.04559000
Si             -2.22058195     -3.94046697      0.03738954      14     -0.33329000     -0.41820400      0.00486000      0.15283000     -0.34325000     -0.50917000
Si              0.07530084     -3.53461783      3.82041139      14      0.01130200     -0.37513100      0.49658800     -0.18509000     -0.46574000      0.45544000
Si             -3.32917396     -3.72622144      5.79942615      14     -0.49968000     -0.39546600      0.75382600     -0.15317000     -0.11991000     -0.87891000
Si              1.09003664     -4.26697987      5.80435757      14      0.16360500     -0.45285700      0.75446700      0.02047000      0.40566000     -0.50496000
Si             -2.15697400     -4.12690713      3.79827000      14     -0.32374300     -0.43799100      0.49371000     -0.27991000      0.21870000      0.44768000
8
energy=-1296.27644892 kpoints_mp_grid="4       3       3" castep_file_name=surface.castep Lattice="6.66261200       0.00000000       0.00000000       0.00000000       9.42235600       0.00000000       0.00000000       0.00000000       7.69332200" Properties=species:S:1:pos:R:3:Z:I:1:frac_pos:R:3:force:R:3
Si              0.01511747     -3.92035024     -0.01213237      14      0.00226900     -0.41606900     -0.00157700     -0.38439000      0.30864000     -0.35712000
Si             -3.37593884     -3.61313432      1.96734400      14     -0.50669900     -0.38346400      0.25572100     -0.23981000     -0.07216000     -0.39701000
Si              1.06687740     -4.20105165      1.91616032      14      0.16012900     -0.44586000      0.24906800      0.46529000      0.14246000      0.77439000
Si             -2.26240317     -3.99734031      0.03198883      14     -0.33956700     -0.42424000      0.00415800      0.33019000     -0.23011000      0.17655000
Si             -0.02716347     -3.64481228      3.85962425      14     -0.00407700     -0.38682600      0.50168500      1.43116000      0.04686000     -0.08199000
Si             -3.31031877     -3.75426237      5.76729884      14     -0.49685000     -0.39844200      0.74965000      0.27010000      0.09760000     -0.50787000
Si              1.16235263     -4.19870548      5.75482027      14      0.17445900     -0.44561100      0.74802800     -0.56385000      0.00540000     -0.25844000
Si             -2.15201035     -4.07819355      3.79486956      14     -0.32299800     -0.43282100      0.49326800     -1.30869000     -0.29870000      0.65148000
8
energy=-1296.17204430 kpoints_mp_grid="4       3       3" castep_file_name=surface.castep Lattice="6.66261200       0.00000000       0.00000000       0.00000000       9.42235600       0.00000000       0.00000000       0.00000000       7.69332200" Properties=species:S:1:pos:R:3:Z:I:1:frac_pos:R:3:force:R:3
Si             -0.01265896     -3.61821297     -0.01617136      14     -0.00190000     -0.38400300     -0.00210200     -0.27426000      0.07935000      0.68095000
Si             -3.41959893     -3.55020241      1.92401521      14     -0.51325200     -0.37678500      0.25008900     -0.35314000     -0.37567000      0.77347000
Si              1.02221125     -4.28834977      1.89931195      14      0.15342500     -0.45512500      0.24687800      1.02175000      0.31259000     -0.30302000
Si             -2.24639957     -3.98355540      0.08245703      14     -0.33716500     -0.42277700      0.01071800      0.20239000     -0.19012000     -0.90073000
Si              0.05414705     -3.90216509      3.87960380      14      0.00812700     -0.41413900      0.50428200     -0.79696000      0.24369000     -0.32235000
Si             -3.19260374     -3.70462540      5.72171590      14     -0.47918200     -0.39317400      0.74372500     -1.17445000     -0.12476000      0.34087000
Si              1.11202326     -4.08559010      5.81816708      14      0.16690500     -0.43360600      0.75626200      1.47453000     -0.16153000     -0.15723000
Si             -2.20060744     -4.27514905      3.77087408      14     -0.33029200     -0.45372400      0.49014900     -0.09987000      0.21645000     -0.11197000
8
energy=-1296.17102865 kpoints_mp_grid="4       3       3" castep_file_name=surface.castep Lattice="6.66261200       0.00000000       0.00000000       0.00000000       9.42235600       0.00000000       0.00000000       0.00000000       7.69332200" Properties=species:S:1:pos:R:3:Z:I:1:frac_pos:R:3:force:R:3
Si              0.02224646     -3.65899293      0.02404932      14      0.00333900     -0.38833100      0.00312600      0.16215000     -0.00663000      1.05401000
Si             -3.23716996     -3.91105037      1.84241983      14     -0.48587100     -0.41508200      0.23948300     -1.32967000      0.09496000      0.82294000
Si              1.09380767     -4.31898185      1.96663621      14      0.16417100     -0.45837600      0.25562900      0.35010000      0.49073000     -0.18901000
Si             -2.15454214     -4.16879892     -0.06607794      14     -0.32337800     -0.44243700     -0.00858900     -0.37202000      0.03495000     -0.98398000
Si             -0.05368066     -3.58638425      3.84479922      14     -0.00805700     -0.38062500      0.49975800      0.20426000     -0.56018000      0.34712000
Si             -3.36928955     -3.48043928      5.74058762      14     -0.50570100     -0.36938100      0.74617800      0.34469000     -0.28363000      0.55825000
Si              1.11216317     -4.06194940      5.84454748      14      0.16692600     -0.43109700      0.75969100     -0.12240000      0.04577000     -1.37845000
Si             -2.29702210     -4.22124376      3.88300425      14     -0.34476300     -0.44800300      0.50472400      0.76289000      0.18404000     -0.23087000
8
energy=-1296.17811645 kpoints_mp_grid="4       3       3" castep_file_name=surface.castep Lattice="6.66261200       0.00000000       0.00000000       0.00000000       9.42235600       0.00000000       0.00000000       0.00000000       7.69332200" Properties=species:S:1:pos:R:3:Z:I:1:frac_pos:R:3:force:R:3
Si              0.06259524     -3.41178800      0.11035301      14      0.00939500     -0.36209500      0.01434400     -0.35428000     -0.39394000     -0.77310000
Si             -3.35345918     -3.66211173      1.89008766      14     -0.50332500     -0.38866200      0.24567900      0.59008000     -0.23076000     -0.76032000
Si              1.13989962     -4.28801057      1.90953637      14      0.17108900     -0.45508900      0.24820700     -0.42783000      0.13211000      0.67071000
Si             -2.14291589     -4.07045779     -0.12565503      14     -0.32163300     -0.43200000     -0.01633300     -0.03163000      0.20065000      1.49753000
Si             -0.03234032     -3.95003066      3.91703951      14     -0.00485400     -0.41921900      0.50914800      0.17399000      0.15452000     -1.07216000
Si             -3.37849728     -3.68887122      5.75958244      14     -0.50708300     -0.39150200      0.74864700      0.55053000      0.02851000     -1.07351000
Si              1.09139581     -4.09064990      5.83043024      14      0.16380900     -0.43414300      0.75785600     -0.29189000     -0.01525000      0.89727000
Si             -2.27015845     -4.24593033      3.78859950      14     -0.34073100     -0.45062300      0.49245300     -0.20898000      0.12417000      0.61358000
8
energy=-1296.25301341 kpoints_mp_grid="4       3       3" castep_file_name=surface.castep Lattice="6.66261200       0.00000000       0.00000000       0.00000000       9.42235600       0.00000000       0.00000000       0.00000000       7.69332200" Properties=species:S:1:pos:R:3:Z:I:1:frac_pos:R:3:force:R:3
Si              0.01452449     -3.55256742      0.02758825      14      0.00218000     -0.37703600      0.00358600      0.19412000     -0.06947000     -0.94662000
Si             -3.37636524     -3.68308589      1.92751567      14     -0.50676300     -0.39088800      0.25054400      1.24347000     -0.34785000      0.18513000
Si              1.11103719     -4.17876777      1.87413940      14      0.16675700     -0.44349500      0.24360600     -0.01060000     -0.25479000      0.04400000
Si             -2.14470147     -4.17922947     -0.01971029      14     -0.32190100     -0.44354400     -0.00256200     -0.71882000      0.14508000      0.89940000
Si             -0.04487269     -3.89019870      3.77280511      14     -0.00673500     -0.41286900      0.49040000      0.11665000      0.25366000      0.58356000
Si             -3.30995899     -3.58953132      5.84350889      14     -0.49679600     -0.38095900      0.75955600      0.03242000     -0.11815000     -0.64049000
Si              1.12998566     -4.05375195      5.72987083      14      0.16960100     -0.43022700      0.74478500     -0.30018000      0.04429000      0.48035000
Si             -2.26312273     -4.28071767      3.92425585      14     -0.33967500     -0.45431500      0.51008600     -0.55706000      0.34725000     -0.60533000
8
energy=-1296.29153242 kpoints_mp_grid="4       3       3" castep_file_name=surface.castep Lattice="6.66261200       0.00000000       0.00000000       0.00000000       9.42235600       0.00000000       0.00000000       0.00000000       7.69332200" Properties=species:S:1:pos:R:3:Z:I:1:frac_pos:R:3:force:R:3
Si              0.01966803     -3.52965225     -0.04292104      14      0.00295200     -0.37460400     -0.00557900     -0.34175000     -0.27119000      0.55494000
Si             -3.29620070     -3.75328244      1.93123154      14     -0.49473100     -0.39833800      0.25102700     -1.07217000      0.19699000     -0.33393000
Si              1.06365936     -4.06050778      1.95168039      14      0.15964600     -0.43094400      0.25368500      0.33868000      0.10333000     -0.34144000
Si             -2.26960545     -3.98863405     -0.04236712      14     -0.34064800     -0.42331600     -0.00550700      0.97501000     -0.08000000     -0.08010000
Si              0.01481099     -3.73571917      3.93265695      14      0.00222300     -0.39647400      0.51117800      0.38700000     -0.06888000      0.12676000
Si             -3.34657004     -3.81905049      5.68568808      14     -0.50229100     -0.40531800      0.73904200     -0.38256000      0.16763000      0.39746000
Si              1.12014498     -4.36976835      5.85705683      14      0.16812400     -0.46376600      0.76131700     -0.21908000      0.21365000     -0.49157000
Si             -2.18938760     -4.15124507      3.80694807      14     -0.32860800     -0.44057400      0.49483800      0.31487000     -0.26153000      0.16788000
8
energy=-1296.21831832 kpoints_mp_grid="4       3       3" castep_file_name=surface.castep Lattice="6.66261200       0.00000000       0.00000000       0.00000000       9.42235600       0.00000000       0.00000000       0.00000000       7.69332200" Properties=species:S:1:pos:R:3:Z:I:1:frac_pos:R:3:force:R:3
Si              0.00844819     -3.69441156      0.03040401      14      0.00126800     -0.39209000      0.00395200      0.14080000     -0.12299000     -0.08184000
Si             -3.30570824     -3.58975746      1.92906202      14     -0.49615800     -0.38098300      0.25074500     -0.91785000      0.04274000      0.07382000
Si              1.14839445     -4.23225849      1.94540264      14      0.17236400     -0.44917200      0.25286900      0.10618000      0.24726000     -0.35481000
Si             -2.20822947     -4.19178947      0.08518046      14     -0.33143600     -0.44487700      0.01107200      0.41031000     -0.13915000     -0.45252000
Si             -0.04504592     -3.62561894      3.77334364      14     -0.00676100     -0.38478900      0.49047000      0.02015000     -0.01958000      0.00231000
Si             -3.23697674     -3.88898322      5.79548717      14     -0.48584200     -0.41274000      0.75331400     -1.65809000      0.26425000      0.15300000
Si              1.01095809     -4.04879580      5.70317500      14      0.15173600     -0.42970100      0.74131500      1.31147000     -0.09874000      0.59326000
Si             -2.25532748     -4.13623526      3.81791106      14     -0.33850500     -0.43898100      0.49626300      0.58703000     -0.17379000      0.06677000
8
energy=-1296.26632641 kpoints_mp_grid="4       3       3" castep_file_name=surface.castep Lattice="6.66261200       0.00000000       0.00000000       0.00000000       9.42235600       0.00000000       0.00000000       0.00000000       7.69332200" Properties=species:S:1:pos:R:3:Z:I:1:frac_pos:R:3:force:R:3
Si              0.02699024     -3.59263127      0.03905900      14      0.00405100     -0.38128800      0.00507700     -0.31294000     -0.18807000      0.01247000
Si             -3.36173415     -3.74492481      1.86946955      14     -0.50456700     -0.39745100      0.24299900     -0.01854000      0.05660000      1.01457000
Si              1.08292097     -4.19106395      1.96962891      14      0.16253700     -0.44480000      0.25601800      0.05657000      0.01790000     -0.37793000
Si             -2.25233596     -3.98871885     -0.01596364      14     -0.33805600     -0.42332500     -0.00207500      0.48907000      0.01684000     -1.32934000
Si              0.00716897     -3.94084386      3.92894877      14      0.00107600     -0.41824400      0.51069600      0.25254000      0.30098000     -0.14325000
Si             -3.34616362     -3.56230071      5.63128090      14     -0.50223000     -0.37806900      0.73197000      0.12102000     -0.09519000      1.29182000
Si              1.15937444     -4.22972388      5.83428459      14      0.17401200     -0.44890300      0.75835700     -0.12377000      0.08287000      0.28586000
Si             -2.19970799     -4.15766170      3.82325791      14     -0.33015700     -0.44125500      0.49695800     -0.46396000     -0.19192000     -0.75419000
8
energy=-1296.28493338 kpoints_mp_grid="4       3       3" castep_file_name=surface.castep Lattice="6.66261200       0.00000000       0.00000000       0.00000000       9.42235600       0.00000000       0.00000000       0.00000000       7.69332200" Properties=species:S:1:pos:R:3:Z:I:1:frac_pos:R:3:force:R:3
Si             -0.00009328     -3.71705349      0.05276080      14     -0.00001400     -0.39449300      0.00685800     -0.86642000      0.05513000     -0.29827000
Si             -3.30503532     -3.64089258      1.90760535      14     -0.49605700     -0.38641000      0.24795600     -0.21596000     -0.21464000      0.12406000
Si              1.10315532     -4.11767322      1.96005073      14      0.16557400     -0.43701100      0.25477300      0.46452000      0.02465000      0.39502000
Si             -2.32481852     -4.06147829     -0.09522025      14     -0.34893500     -0.43104700     -0.01237700      1.26863000     -0.09850000      1.04548000
Si              0.04876366     -3.60429615      3.92077846      14      0.00731900     -0.38252600      0.50963400     -0.12408000     -0.18564000     -0.12365000
Si             -3.35870932     -3.73708541      5.69532012      14     -0.50411300     -0.39661900      0.74029400     -0.33195000     -0.02971000     -0.93212000
Si              1.07526563     -4.27114455      5.84207793      14      0.16138800     -0.45329900      0.75937000      0.39327000      0.14378000     -0.27335000
Si             -2.12200861     -4.25821708      3.79658517      14     -0.31849500     -0.45192700      0.49349100     -0.58802000      0.30493000      0.06284000
8
energy=-1295.99817297 kpoints_mp_grid="4       3       3" castep_file_name=surface.castep Lattice="6.66261200       0.00000000       0.00000000       0.00000000       9.42235600       0.00000000       0.00000000       0.00000000       7.69332200" Properties=species:S:1:pos:R:3:Z:I:1:frac_pos:R:3:force:R:3
Si              0.00595638     -3.80133646     -0.25727238      14      0.00089400     -0.40343800     -0.03344100     -0.93422000      0.45333000      1.53215000
Si             -3.32518306     -3.49233029      2.08374396      14     -0.49908100     -0.37064300      0.27085100     -0.52905000     -0.07290000      0.45595000
Si              1.10876524     -3.92385535      1.74419919      14      0.16641600     -0.41644100      0.22671600      0.21227000     -0.08480000      0.13696000
Si             -2.27832681     -3.94518757      0.19551809      14     -0.34195700     -0.41870500      0.02541400      1.12145000     -0.35475000     -0.78103000
Si              0.03542511     -3.78725004      3.74361665      14      0.00531700     -0.40194300      0.48660600      0.57524000      0.11372000     -0.08001000
Si             -3.34932170     -4.05955613      5.93132046      14     -0.50270400     -0.43084300      0.77097000     -0.30869000      0.24370000     -0.50526000
Si              1.06246675     -4.46541469      5.64415953      14      0.15946700     -0.47391700      0.73364400      0.89641000     -0.08753000     -0.66652000
Si             -2.14326234     -3.93291024      3.99468052      14     -0.32168500     -0.41740200      0.51924000     -1.03341000     -0.21078000     -0.09224000
8
energy=-1295.99402041 kpoints_mp_grid="4       3       3" castep_file_name=surface.castep Lattice="6.66261200       0.00000000       0.00000000       0.00000000       9.42235600       0.00000000       0.00000000       0.00000000       7.69332200" Properties=species:S:1:pos:R:3:Z:I:1:frac_pos:R:3:force:R:3
Si             -0.06274182     -3.86324134      0.03424298      14     -0.00941700     -0.41000800      0.00445100      0.85141000      0.14740000      0.48271000
Si             -3.37544580     -4.06373965      1.84597415      14     -0.50662500     -0.43128700      0.23994500     -0.39637000      0.19972000     -0.52973000
Si              1.03788837     -4.09253437      2.01278845      14      0.15577800     -0.43434300      0.26162800      0.13877000     -0.01687000     -0.46206000
Si             -2.25713971     -3.87270138     -0.09788983      14     -0.33877700     -0.41101200     -0.01272400      0.06248000     -0.46443000      0.87180000